============================== echo of input deck ==============================
start h10_1.2

#permanent_dir /dtemp/emsls50086

echo

geometry units bohr
symmetry c1
H   0.0   0.0   0.0
H   1.2   0.0   0.0
H   2.4   0.0   0.0
H   3.6   0.0   0.0
H   4.8   0.0   0.0
H   6.0   0.0   0.0
H   7.2   0.0   0.0
H   8.4   0.0   0.0
H   9.6   0.0   0.0
H  10.8   0.0   0.0
end

basis
 * library sto-6g
end

scf
thresh 1.0e-10
tol2e 1.0e-10
singlet
rhf
end

tce
ccsd
thresh 1.0e-6
maxiter 1000
tilesize 1
2eorb
2emet 13
end

set tce:print_integrals T
set tce:qorb  10
set tce:qela  5
set tce:qelb  5

task tce energy

================================================================================

 Output coordinates in a.u. (scale by  1.000000000 to convert to a.u.)

  No.       Tag          Charge          X              Y              Z
 ---- ---------------- ---------- -------------- -------------- --------------
    1 H                    1.0000    -5.40000000     0.00000000     0.00000000
    2 H                    1.0000    -4.20000000     0.00000000     0.00000000
    3 H                    1.0000    -3.00000000     0.00000000     0.00000000
    4 H                    1.0000    -1.80000000     0.00000000     0.00000000
    5 H                    1.0000    -0.60000000     0.00000000     0.00000000
    6 H                    1.0000     0.60000000     0.00000000     0.00000000
    7 H                    1.0000     1.80000000     0.00000000     0.00000000
    8 H                    1.0000     3.00000000     0.00000000     0.00000000
    9 H                    1.0000     4.20000000     0.00000000     0.00000000
   10 H                    1.0000     5.40000000     0.00000000     0.00000000

         Total SCF energy =     -4.678055305885

 Vector    1  Occ=2.000000D+00  E=-1.011940D+00

 Vector    2  Occ=2.000000D+00  E=-9.083271D-01

 Vector    3  Occ=2.000000D+00  E=-7.423562D-01

 Vector    4  Occ=2.000000D+00  E=-5.080937D-01

 Vector    5  Occ=2.000000D+00  E=-2.017173D-01

 Vector    6  Occ=0.000000D+00  E= 4.620187D-01

 Vector    7  Occ=0.000000D+00  E= 9.645316D-01

 Vector    8  Occ=0.000000D+00  E= 1.602731D+00

 Vector    9  Occ=0.000000D+00  E= 2.370146D+00

 Vector   10  Occ=0.000000D+00  E= 3.114900D+00

       Multipole analysis of the density wrt the origin
       ------------------------------------------------

     L   x y z        total         open         nuclear
     -   - - -        -----         ----         -------
     0   0 0 0     -0.000000      0.000000     10.000000

     1   1 0 0      0.000000      0.000000      0.000000
     1   0 1 0      0.000000      0.000000      0.000000
     1   0 0 1      0.000000      0.000000      0.000000

     2   2 0 0    -11.917643      0.000000    118.800000
     2   1 1 0      0.000000      0.000000      0.000000
     2   1 0 1      0.000000      0.000000      0.000000
     2   0 2 0     -6.190796      0.000000      0.000000
     2   0 1 1      0.000000      0.000000      0.000000

 CCSD total energy / hartree       =        -4.765610498783070
 Total times  cpu:      112.0s     wall:      112.0s
