============================== echo of input deck ==============================
start h10_1.4

#permanent_dir /dtemp/emsls50086

echo

geometry units bohr
symmetry c1
H   0.0   0.0   0.0
H   1.4   0.0   0.0
H   2.8   0.0   0.0
H   4.2   0.0   0.0
H   5.6   0.0   0.0
H   7.0   0.0   0.0
H   8.4   0.0   0.0
H   9.8   0.0   0.0
H  11.2   0.0   0.0
H  12.6   0.0   0.0
end

basis
 * library sto-6g
end

scf
thresh 1.0e-10
tol2e 1.0e-10
singlet
rhf
end

tce
ccsd
thresh 1.0e-6
maxiter 1000
tilesize 1
2eorb
2emet 13
end

set tce:print_integrals T
set tce:qorb  10
set tce:qela  5
set tce:qelb  5

task tce energy

================================================================================

 Output coordinates in a.u. (scale by  1.000000000 to convert to a.u.)

  No.       Tag          Charge          X              Y              Z
 ---- ---------------- ---------- -------------- -------------- --------------
    1 H                    1.0000    -6.30000000     0.00000000     0.00000000
    2 H                    1.0000    -4.90000000     0.00000000     0.00000000
    3 H                    1.0000    -3.50000000     0.00000000     0.00000000
    4 H                    1.0000    -2.10000000     0.00000000     0.00000000
    5 H                    1.0000    -0.70000000     0.00000000     0.00000000
    6 H                    1.0000     0.70000000     0.00000000     0.00000000
    7 H                    1.0000     2.10000000     0.00000000     0.00000000
    8 H                    1.0000     3.50000000     0.00000000     0.00000000
    9 H                    1.0000     4.90000000     0.00000000     0.00000000
   10 H                    1.0000     6.30000000     0.00000000     0.00000000

         Total SCF energy =     -5.098619510184

 Vector    1  Occ=2.000000D+00  E=-8.937632D-01

 Vector    2  Occ=2.000000D+00  E=-8.114534D-01

 Vector    3  Occ=2.000000D+00  E=-6.780758D-01

 Vector    4  Occ=2.000000D+00  E=-4.890161D-01

 Vector    5  Occ=2.000000D+00  E=-2.419195D-01

 Vector    6  Occ=0.000000D+00  E= 3.214639D-01

 Vector    7  Occ=0.000000D+00  E= 7.115382D-01

 Vector    8  Occ=0.000000D+00  E= 1.188879D+00

 Vector    9  Occ=0.000000D+00  E= 1.735803D+00

 Vector   10  Occ=0.000000D+00  E= 2.237279D+00

       Multipole analysis of the density wrt the origin
       ------------------------------------------------

     L   x y z        total         open         nuclear
     -   - - -        -----         ----         -------
     0   0 0 0     -0.000000      0.000000     10.000000

     1   1 0 0     -0.000000      0.000000      0.000000
     1   0 1 0      0.000000      0.000000      0.000000
     1   0 0 1      0.000000      0.000000      0.000000

     2   2 0 0    -10.649503      0.000000    161.700000
     2   1 1 0      0.000000      0.000000      0.000000
     2   1 0 1      0.000000      0.000000      0.000000
     2   0 2 0     -6.447331      0.000000      0.000000
     2   0 1 1      0.000000      0.000000      0.000000

 CCSD total energy / hartree       =        -5.204018466046361
 Total times  cpu:      130.3s     wall:      130.3s
