============================== echo of input deck ==============================
start h10_1.8

#permanent_dir /dtemp/emsls50086

echo

geometry units bohr
symmetry c1
H   0.0   0.0   0.0
H   1.8   0.0   0.0
H   3.6   0.0   0.0
H   5.4   0.0   0.0
H   7.2   0.0   0.0
H   9.0   0.0   0.0
H  10.8   0.0   0.0
H  12.6   0.0   0.0
H  14.4   0.0   0.0
H  16.2   0.0   0.0
end

basis
 * library sto-6g
end

scf
thresh 1.0e-10
tol2e 1.0e-10
singlet
rhf
end

tce
ccsd
thresh 1.0e-6
maxiter 1000
tilesize 1
nroots 1
2eorb
2emet 13
end

set tce:print_integrals T
set tce:qorb  10
set tce:qela  5
set tce:qelb  5

task tce energy

================================================================================

 Output coordinates in a.u. (scale by  1.000000000 to convert to a.u.)

  No.       Tag          Charge          X              Y              Z
 ---- ---------------- ---------- -------------- -------------- --------------
    1 H                    1.0000    -8.10000000     0.00000000     0.00000000
    2 H                    1.0000    -6.30000000     0.00000000     0.00000000
    3 H                    1.0000    -4.50000000     0.00000000     0.00000000
    4 H                    1.0000    -2.70000000     0.00000000     0.00000000
    5 H                    1.0000    -0.90000000     0.00000000     0.00000000
    6 H                    1.0000     0.90000000     0.00000000     0.00000000
    7 H                    1.0000     2.70000000     0.00000000     0.00000000
    8 H                    1.0000     4.50000000     0.00000000     0.00000000
    9 H                    1.0000     6.30000000     0.00000000     0.00000000
   10 H                    1.0000     8.10000000     0.00000000     0.00000000

         Total SCF energy =     -5.270142841431

 Vector    1  Occ=2.000000D+00  E=-7.242451D-01

 Vector    2  Occ=2.000000D+00  E=-6.673610D-01

 Vector    3  Occ=2.000000D+00  E=-5.734053D-01

 Vector    4  Occ=2.000000D+00  E=-4.397216D-01

 Vector    5  Occ=2.000000D+00  E=-2.669516D-01

 Vector    6  Occ=0.000000D+00  E= 1.694785D-01

 Vector    7  Occ=0.000000D+00  E= 4.275336D-01

 Vector    8  Occ=0.000000D+00  E= 7.233908D-01

 Vector    9  Occ=0.000000D+00  E= 1.032640D+00

 Vector   10  Occ=0.000000D+00  E= 1.290020D+00

       Multipole analysis of the density wrt the origin
       ------------------------------------------------

     L   x y z        total         open         nuclear
     -   - - -        -----         ----         -------
     0   0 0 0     -0.000000      0.000000     10.000000

     1   1 0 0      0.000000      0.000000      0.000000
     1   0 1 0      0.000000      0.000000      0.000000
     1   0 0 1      0.000000      0.000000      0.000000

     2   2 0 0     -7.991864      0.000000    267.300000
     2   1 1 0      0.000000      0.000000      0.000000
     2   1 0 1      0.000000      0.000000      0.000000
     2   0 2 0     -6.797858      0.000000      0.000000
     2   0 1 1      0.000000      0.000000      0.000000

 CCSD total energy / hartree       =        -5.422549144781128
 Total times  cpu:      391.6s     wall:      391.6s
