============================== echo of input deck ==============================
start h10_2.4

#permanent_dir /dtemp/emsls50086

echo

geometry units bohr
symmetry c1
H   0.0   0.0   0.0
H   2.4   0.0   0.0
H   4.8   0.0   0.0
H   7.2   0.0   0.0
H   9.6   0.0   0.0
H  12.0   0.0   0.0
H  14.4   0.0   0.0
H  16.8   0.0   0.0
H  19.2   0.0   0.0
H  21.6   0.0   0.0
end

basis
 * library sto-6g
end

scf
thresh 1.0e-10
tol2e 1.0e-10
singlet
rhf
end

tce
ccsd
thresh 1.0e-6
maxiter 1000
tilesize 1
2eorb
2emet 13
end

set tce:print_integrals T
set tce:qorb  10
set tce:qela  5
set tce:qelb  5

task tce energy

================================================================================

 Output coordinates in a.u. (scale by  1.000000000 to convert to a.u.)

  No.       Tag          Charge          X              Y              Z
 ---- ---------------- ---------- -------------- -------------- --------------
    1 H                    1.0000   -10.80000000     0.00000000     0.00000000
    2 H                    1.0000    -8.40000000     0.00000000     0.00000000
    3 H                    1.0000    -6.00000000     0.00000000     0.00000000
    4 H                    1.0000    -3.60000000     0.00000000     0.00000000
    5 H                    1.0000    -1.20000000     0.00000000     0.00000000
    6 H                    1.0000     1.20000000     0.00000000     0.00000000
    7 H                    1.0000     3.60000000     0.00000000     0.00000000
    8 H                    1.0000     6.00000000     0.00000000     0.00000000
    9 H                    1.0000     8.40000000     0.00000000     0.00000000
   10 H                    1.0000    10.80000000     0.00000000     0.00000000

         Total SCF energy =     -4.956056404461

 Vector    1  Occ=2.000000D+00  E=-5.580300D-01

 Vector    2  Occ=2.000000D+00  E=-5.201041D-01

 Vector    3  Occ=2.000000D+00  E=-4.568754D-01

 Vector    4  Occ=2.000000D+00  E=-3.674936D-01

 Vector    5  Occ=2.000000D+00  E=-2.560126D-01

 Vector    6  Occ=0.000000D+00  E= 7.459391D-02

 Vector    7  Occ=0.000000D+00  E= 2.294456D-01

 Vector    8  Occ=0.000000D+00  E= 3.941154D-01

 Vector    9  Occ=0.000000D+00  E= 5.477468D-01

 Vector   10  Occ=0.000000D+00  E= 6.618602D-01

       Multipole analysis of the density wrt the origin
       ------------------------------------------------

     L   x y z        total         open         nuclear
     -   - - -        -----         ----         -------
     0   0 0 0     -0.000000      0.000000     10.000000

     1   1 0 0      0.000000      0.000000      0.000000
     1   0 1 0      0.000000      0.000000      0.000000
     1   0 0 1      0.000000      0.000000      0.000000

     2   2 0 0     -4.602162      0.000000    475.200000
     2   1 1 0      0.000000      0.000000      0.000000
     2   1 0 1      0.000000      0.000000      0.000000
     2   0 2 0     -7.048666      0.000000      0.000000
     2   0 1 1      0.000000      0.000000      0.000000

 CCSD total energy / hartree       =        -5.226814441001802
 Total times  cpu:      224.3s     wall:      224.3s
