============================== echo of input deck ==============================
start h10_3.6

#permanent_dir /dtemp/emsls50086

echo

geometry units bohr
symmetry c1
H   0.0   0.0   0.0
H   3.6   0.0   0.0
H   7.2   0.0   0.0
H  10.8   0.0   0.0
H  14.4   0.0   0.0
H  18.0   0.0   0.0
H  21.6   0.0   0.0
H  25.2   0.0   0.0
H  28.8   0.0   0.0
H  32.4   0.0   0.0
end

basis
 * library sto-6g
end

scf
thresh 1.0e-10
tol2e 1.0e-10
singlet
rhf
end

tce
ccsd
thresh 1.0e-6
maxiter 1000
tilesize 1
2eorb
2emet 13
end

set tce:print_integrals T
set tce:qorb  10
set tce:qela  5
set tce:qelb  5

task tce energy

================================================================================

 Output coordinates in a.u. (scale by  1.000000000 to convert to a.u.)

  No.       Tag          Charge          X              Y              Z
 ---- ---------------- ---------- -------------- -------------- --------------
    1 H                    1.0000   -16.20000000     0.00000000     0.00000000
    2 H                    1.0000   -12.60000000     0.00000000     0.00000000
    3 H                    1.0000    -9.00000000     0.00000000     0.00000000
    4 H                    1.0000    -5.40000000     0.00000000     0.00000000
    5 H                    1.0000    -1.80000000     0.00000000     0.00000000
    6 H                    1.0000     1.80000000     0.00000000     0.00000000
    7 H                    1.0000     5.40000000     0.00000000     0.00000000
    8 H                    1.0000     9.00000000     0.00000000     0.00000000
    9 H                    1.0000    12.60000000     0.00000000     0.00000000
   10 H                    1.0000    16.20000000     0.00000000     0.00000000

         Total SCF energy =     -4.104931981190

 Vector    1  Occ=2.000000D+00  E=-3.595276D-01

 Vector    2  Occ=2.000000D+00  E=-3.389809D-01

 Vector    3  Occ=2.000000D+00  E=-3.056220D-01

 Vector    4  Occ=2.000000D+00  E=-2.608283D-01

 Vector    5  Occ=2.000000D+00  E=-2.114168D-01

 Vector    6  Occ=0.000000D+00  E= 1.759036D-02

 Vector    7  Occ=0.000000D+00  E= 7.750370D-02

 Vector    8  Occ=0.000000D+00  E= 1.377411D-01

 Vector    9  Occ=0.000000D+00  E= 1.876094D-01

 Vector   10  Occ=0.000000D+00  E= 2.205135D-01

       Multipole analysis of the density wrt the origin
       ------------------------------------------------

     L   x y z        total         open         nuclear
     -   - - -        -----         ----         -------
     0   0 0 0     -0.000000      0.000000     10.000000

     1   1 0 0      0.000000      0.000000      0.000000
     1   0 1 0      0.000000      0.000000      0.000000
     1   0 0 1      0.000000      0.000000      0.000000

     2   2 0 0     -1.990463      0.000000   1069.200000
     2   1 1 0      0.000000      0.000000      0.000000
     2   1 0 1      0.000000      0.000000      0.000000
     2   0 2 0     -7.027736      0.000000      0.000000
     2   0 1 1      0.000000      0.000000      0.000000

 CCSD total energy / hartree       =        -4.929788845460365
 Total times  cpu:    26063.2s     wall:    26063.2s
