============================== echo of input deck ==============================
start h10_3.2

#permanent_dir /dtemp/emsls50086

echo

geometry units bohr
symmetry c1
H   0.0   0.0   0.0
H   3.2   0.0   0.0
H   6.4   0.0   0.0
H   9.6   0.0   0.0
H  12.8   0.0   0.0
H  16.0   0.0   0.0
H  19.2   0.0   0.0
H  22.4   0.0   0.0
H  25.6   0.0   0.0
H  28.8   0.0   0.0
end

basis
 * library sto-6g
end

scf
thresh 1.0e-10
tol2e 1.0e-10
singlet
rhf
end

tce
ccsd
thresh 1.0e-6
maxiter 1000
tilesize 1
2eorb
2emet 13
end

set tce:print_integrals T
set tce:qorb  10
set tce:qela  5
set tce:qelb  5

task tce energy

================================================================================

 Output coordinates in a.u. (scale by  1.000000000 to convert to a.u.)

  No.       Tag          Charge          X              Y              Z
 ---- ---------------- ---------- -------------- -------------- --------------
    1 H                    1.0000   -14.40000000     0.00000000     0.00000000
    2 H                    1.0000   -11.20000000     0.00000000     0.00000000
    3 H                    1.0000    -8.00000000     0.00000000     0.00000000
    4 H                    1.0000    -4.80000000     0.00000000     0.00000000
    5 H                    1.0000    -1.60000000     0.00000000     0.00000000
    6 H                    1.0000     1.60000000     0.00000000     0.00000000
    7 H                    1.0000     4.80000000     0.00000000     0.00000000
    8 H                    1.0000     8.00000000     0.00000000     0.00000000
    9 H                    1.0000    11.20000000     0.00000000     0.00000000
   10 H                    1.0000    14.40000000     0.00000000     0.00000000

         Total SCF energy =     -4.366793530298

 Vector    1  Occ=2.000000D+00  E=-4.132087D-01

 Vector    2  Occ=2.000000D+00  E=-3.881845D-01

 Vector    3  Occ=2.000000D+00  E=-3.470372D-01

 Vector    4  Occ=2.000000D+00  E=-2.905674D-01

 Vector    5  Occ=2.000000D+00  E=-2.252668D-01

 Vector    6  Occ=0.000000D+00  E= 2.843348D-02

 Vector    7  Occ=0.000000D+00  E= 1.109518D-01

 Vector    8  Occ=0.000000D+00  E= 1.941685D-01

 Vector    9  Occ=0.000000D+00  E= 2.647450D-01

 Vector   10  Occ=0.000000D+00  E= 3.125308D-01

       Multipole analysis of the density wrt the origin
       ------------------------------------------------

     L   x y z        total         open         nuclear
     -   - - -        -----         ----         -------
     0   0 0 0     -0.000000      0.000000     10.000000

     1   1 0 0     -0.000000      0.000000     -0.000000
     1   0 1 0      0.000000      0.000000      0.000000
     1   0 0 1      0.000000      0.000000      0.000000

     2   2 0 0     -2.255952      0.000000    844.800000
     2   1 1 0      0.000000      0.000000      0.000000
     2   1 0 1      0.000000      0.000000      0.000000
     2   0 2 0     -7.081386      0.000000      0.000000
     2   0 1 1      0.000000      0.000000      0.000000

 CCSD total energy / hartree       =        -5.900768361726805
 Total times  cpu:    26262.4s     wall:    26262.4s
