============================== echo of input deck ==============================
start ch4_sto6g

echo

geometry units angstrom
symmetry c1
 C            0.000000     0.000000     0.000000
 H            0.629118     0.629118     0.629118
 H           -0.629118    -0.629118     0.629118
 H            0.629118    -0.629118    -0.629118
 H           -0.629118     0.629118    -0.629118
end

basis
 * library sto-6g
end

scf
thresh 1.0e-10
tol2e 1.0e-11
singlet
rhf
end

tce
2eorb
2emet 13
tilesize 1
ccsd
thresh 1.0e-6
end

set tce:print_integrals T
set tce:qorb  9
set tce:qela  5
set tce:qelb  5

task tce energy

================================================================================

 Output coordinates in angstroms (scale by  1.889725989 to convert to a.u.)

  No.       Tag          Charge          X              Y              Z
 ---- ---------------- ---------- -------------- -------------- --------------
    1 C                    6.0000     0.00000000     0.00000000     0.00000000
    2 H                    1.0000     0.62911800     0.62911800     0.62911800
    3 H                    1.0000    -0.62911800    -0.62911800     0.62911800
    4 H                    1.0000     0.62911800    -0.62911800    -0.62911800
    5 H                    1.0000    -0.62911800     0.62911800    -0.62911800

         Total SCF energy =    -40.110254111001

 Vector    2  Occ=2.000000D+00  E=-9.110047D-01

 Vector    3  Occ=2.000000D+00  E=-5.206200D-01

 Vector    4  Occ=2.000000D+00  E=-5.206200D-01

 Vector    5  Occ=2.000000D+00  E=-5.206200D-01

 Vector    6  Occ=0.000000D+00  E= 7.053884D-01

 Vector    7  Occ=0.000000D+00  E= 7.053884D-01

 Vector    8  Occ=0.000000D+00  E= 7.053884D-01

 Vector    9  Occ=0.000000D+00  E= 7.453202D-01

       Multipole analysis of the density wrt the origin
       ------------------------------------------------

     L   x y z        total         open         nuclear
     -   - - -        -----         ----         -------
     0   0 0 0     -0.000000      0.000000     10.000000

     1   1 0 0      0.000000      0.000000      0.000000
     1   0 1 0     -0.000000      0.000000      0.000000
     1   0 0 1      0.000000      0.000000      0.000000

     2   2 0 0     -5.808791      0.000000      5.653558
     2   1 1 0      0.000000      0.000000      0.000000
     2   1 0 1     -0.000000      0.000000      0.000000
     2   0 2 0     -5.808791      0.000000      5.653558
     2   0 1 1      0.000000      0.000000      0.000000

 CCSD total energy / hartree       =       -40.190596546677050
 Total times  cpu:        4.0s     wall:        5.9s
