 Output coordinates in angstroms (scale by  1.889725989 to convert to a.u.)

  No.       Tag          Charge          X              Y              Z
 ---- ---------------- ---------- -------------- -------------- --------------
    1 H                    1.0000    -1.00000000    -0.30901699     0.00000000
    2 H                    1.0000     1.00000000    -0.30901699     0.00000000
    3 H                    1.0000    -2.90211303     0.30901699     0.00000000
    4 H                    1.0000     2.90211303     0.30901699     0.00000000

         Total SCF energy =     -1.593854201449

 Vector    1  Occ=2.000000D+00  E=-3.150870D-01

 Vector    2  Occ=2.000000D+00  E=-2.404827D-01

 Vector    3  Occ=0.000000D+00  E= 5.901545D-02

 Vector    4  Occ=0.000000D+00  E= 1.575442D-01

       Multipole analysis of the density wrt the origin
       ------------------------------------------------

     L   x y z        total         open         nuclear
     -   - - -        -----         ----         -------
     0   0 0 0     -0.000000      0.000000      4.000000

     1   1 0 0     -0.000000      0.000000      0.000000
     1   0 1 0      0.006309      0.000000      0.000000
     1   0 0 1      0.000000      0.000000      0.000000

     2   2 0 0     -1.468734      0.000000     67.294993
     2   1 1 0      0.000000      0.000000      0.000000
     2   1 0 1      0.000000      0.000000      0.000000
     2   0 2 0     -2.678144      0.000000      1.364025
     2   0 1 1      0.000000      0.000000      0.000000

 CCSD total energy / hartree       =        -1.934116891158423
 Total times  cpu:        0.5s     wall:        2.1s
