 Output coordinates in angstroms (scale by  1.889725989 to convert to a.u.)

  No.       Tag          Charge          X              Y              Z
 ---- ---------------- ---------- -------------- -------------- --------------
    1 H                    1.0000    -1.00000000    -0.98768834     0.00000000
    2 H                    1.0000     1.00000000    -0.98768834     0.00000000
    3 H                    1.0000    -1.31286893     0.98768834     0.00000000
    4 H                    1.0000     1.31286893     0.98768834     0.00000000

         Total SCF energy =     -1.581018288430

 Vector    1  Occ=2.000000D+00  E=-3.193280D-01

 Vector    2  Occ=2.000000D+00  E=-2.250261D-01

 Vector    3  Occ=0.000000D+00  E= 6.806834D-02

 Vector    4  Occ=0.000000D+00  E= 1.524903D-01

       Multipole analysis of the density wrt the origin
       ------------------------------------------------

     L   x y z        total         open         nuclear
     -   - - -        -----         ----         -------
     0   0 0 0     -0.000000      0.000000      4.000000

     1   1 0 0      0.000000      0.000000      0.000000
     1   0 1 0     -0.014726      0.000000      0.000000
     1   0 0 1      0.000000      0.000000      0.000000

     2   2 0 0     -2.802965      0.000000     19.452479
     2   1 1 0      0.000000      0.000000      0.000000
     2   1 0 1      0.000000      0.000000      0.000000
     2   0 2 0     -1.626229      0.000000     13.934697
     2   0 1 1      0.000000      0.000000      0.000000

 CCSD total energy / hartree       =        -1.932334862884835
 Total times  cpu:        0.5s     wall:        1.9s
