 Output coordinates in angstroms (scale by  1.889725989 to convert to a.u.)

  No.       Tag          Charge          X              Y              Z
 ---- ---------------- ---------- -------------- -------------- --------------
    1 H                    1.0000    -1.00000000    -0.99950656     0.00000000
    2 H                    1.0000     1.00000000    -0.99950656     0.00000000
    3 H                    1.0000    -1.06282152     0.99950656     0.00000000
    4 H                    1.0000     1.06282152     0.99950656     0.00000000

         Total SCF energy =     -1.563864889144

 Vector    1  Occ=2.000000D+00  E=-3.269579D-01

 Vector    2  Occ=2.000000D+00  E=-2.090627D-01

 Vector    3  Occ=0.000000D+00  E= 5.859227D-02

 Vector    4  Occ=0.000000D+00  E= 1.613100D-01

       Multipole analysis of the density wrt the origin
       ------------------------------------------------

     L   x y z        total         open         nuclear
     -   - - -        -----         ----         -------
     0   0 0 0     -0.000000      0.000000      4.000000

     1   1 0 0      0.000000      0.000000      0.000000
     1   0 1 0     -0.005457      0.000000      0.000000
     1   0 0 1      0.000000      0.000000      0.000000

     2   2 0 0     -2.930527      0.000000     15.209803
     2   1 1 0      0.000000      0.000000      0.000000
     2   1 0 1      0.000000      0.000000      0.000000
     2   0 2 0     -1.552115      0.000000     14.270164
     2   0 1 1      0.000000      0.000000      0.000000

 CCSD total energy / hartree       =        -1.930988017639133
 Total times  cpu:        0.5s     wall:        1.5s
