 Output coordinates in angstroms (scale by  1.889725989 to convert to a.u.)

  No.       Tag          Charge          X              Y              Z
 ---- ---------------- ---------- -------------- -------------- --------------
    1 H                    1.0000    -1.00000000    -0.95105652     0.00000000
    2 H                    1.0000     1.00000000    -0.95105652     0.00000000
    3 H                    1.0000    -1.61803399     0.95105652     0.00000000
    4 H                    1.0000     1.61803399     0.95105652     0.00000000

         Total SCF energy =     -1.590366083238

 Vector    1  Occ=2.000000D+00  E=-3.163730D-01

 Vector    2  Occ=2.000000D+00  E=-2.332824D-01

 Vector    3  Occ=0.000000D+00  E= 6.939374D-02

 Vector    4  Occ=0.000000D+00  E= 1.514762D-01

       Multipole analysis of the density wrt the origin
       ------------------------------------------------

     L   x y z        total         open         nuclear
     -   - - -        -----         ----         -------
     0   0 0 0     -0.000000      0.000000      4.000000

     1   1 0 0     -0.000000      0.000000      0.000000
     1   0 1 0     -0.010094      0.000000      0.000000
     1   0 0 1      0.000000      0.000000      0.000000

     2   2 0 0     -2.637521      0.000000     25.840464
     2   1 1 0     -0.000000      0.000000      0.000000
     2   1 0 1      0.000000      0.000000      0.000000
     2   0 2 0     -1.735599      0.000000     12.920232
     2   0 1 1      0.000000      0.000000      0.000000

 CCSD total energy / hartree       =        -1.934801929761763
 Total times  cpu:        0.5s     wall:        1.4s
